1
Step 0
Ar -2.763396e-11 1.232663e-10 -2.488456e-12
1
Step 100000
Ar 1.092781e-10 9.403587e-11 9.646625e-11
1
Step 200000
Ar 1.000200e-10 8.380655e-11 -9.780367e-11
1
Step 300000
Ar 5.145020e-11 -9.630704e-11 -2.445693e-11
1
Step 400000
Ar -9.513003e-11 1.190189e-10 1.099590e-10
1
Step 500000
Ar 1.114189e-10 1.205209e-10 1.284362e-10
1
Step 600000
Ar -1.257582e-10 -1.276830e-10 -1.279145e-10
1
Step 700000
Ar 9.455380e-11 -9.554017e-11 1.051996e-10
1
Step 800000
Ar 4.028411e-11 -1.302616e-10 8.446645e-11
1
Step 900000
Ar -1.123538e-10 -1.142537e-10 -1.119331e-10
1
Step 1000000
Ar -7.113120e-11 1.177699e-10 1.137819e-10
1
Step 1100000
Ar -1.048715e-10 -1.008982e-10 -6.560560e-11
1
Step 1200000
Ar -8.889349e-11 -1.043517e-10 -8.472406e-11
1
Step 1300000
Ar -1.247326e-10 -1.131692e-10 -9.357622e-11
1
Step 1400000
Ar -1.272932e-10 7.212457e-11 7.380658e-11
1
Step 1500000
Ar 1.180398e-10 1.011027e-10 9.579310e-11
1
Step 1600000
Ar 9.616854e-11 6.158490e-11 5.711555e-11
1
Step 1700000
Ar -1.128372e-10 9.747603e-11 1.068755e-10
1
Step 1800000
Ar 3.748152e-11 -8.492774e-11 -9.550978e-11
1
Step 1900000
Ar 8.420546e-11 8.856613e-11 -8.450703e-11
1
Step 2000000
Ar -9.052420e-11 -1.116834e-10 -8.910135e-11
1
Step 2100000
Ar 5.904904e-11 7.536267e-11 1.133284e-10
1
Step 2200000
Ar -2.624894e-11 -4.301561e-11 -8.331236e-11
1
Step 2300000
Ar -7.583517e-11 -1.379364e-11 -8.705918e-11
1
Step 2400000
Ar -9.350540e-11 -8.726643e-11 1.179055e-11
1
Step 2500000
Ar -1.320230e-10 3.731989e-12 -1.619032e-10
1
Step 2600000
Ar -1.233549e-10 9.292921e-11 -1.105792e-10
1
Step 2700000
Ar 9.762882e-11 9.752095e-11 9.633702e-11
1
Step 2800000
Ar 1.161799e-10 -3.337070e-11 -4.675254e-11
1
Step 2900000
Ar -6.264907e-11 9.126236e-11 -8.779495e-11
1
Step 3000000
Ar -8.988440e-11 1.096189e-10 -1.054854e-10
1
Step 3100000
Ar 9.749940e-11 1.105430e-10 -1.062531e-10
1
Step 3200000
Ar -8.174174e-11 -9.400301e-11 -8.204201e-11
1
Step 3300000
Ar -7.523220e-11 -9.902691e-11 -8.036823e-11
1
Step 3400000
Ar 9.079848e-11 -1.176648e-10 8.200583e-11
1
Step 3500000
Ar 3.980582e-11 -1.149818e-10 -1.014966e-10
