1
Step 0
Ar -1.050000e-10 0.000000e+00 0.000000e+00
1
Step 10
Ar -1.048673e-10 0.000000e+00 0.000000e+00
1
Step 20
Ar -1.044766e-10 0.000000e+00 0.000000e+00
1
Step 30
Ar -1.038500e-10 0.000000e+00 0.000000e+00
1
Step 40
Ar -1.030222e-10 0.000000e+00 0.000000e+00
1
Step 50
Ar -1.020384e-10 0.000000e+00 0.000000e+00
1
Step 60
Ar -1.009507e-10 0.000000e+00 0.000000e+00
1
Step 70
Ar -9.981529e-11 0.000000e+00 0.000000e+00
1
Step 80
Ar -9.868882e-11 0.000000e+00 0.000000e+00
1
Step 90
Ar -9.762567e-11 0.000000e+00 0.000000e+00
1
Step 100
Ar -9.667549e-11 0.000000e+00 0.000000e+00
1
Step 110
Ar -9.588131e-11 0.000000e+00 0.000000e+00
1
Step 120
Ar -9.527808e-11 0.000000e+00 0.000000e+00
1
Step 130
Ar -9.489180e-11 0.000000e+00 0.000000e+00
1
Step 140
Ar -9.473881e-11 0.000000e+00 0.000000e+00
1
Step 150
Ar -9.482555e-11 0.000000e+00 0.000000e+00
1
Step 160
Ar -9.514839e-11 0.000000e+00 0.000000e+00
1
Step 170
Ar -9.569367e-11 0.000000e+00 0.000000e+00
1
Step 180
Ar -9.643805e-11 0.000000e+00 0.000000e+00
1
Step 190
Ar -9.734898e-11 0.000000e+00 0.000000e+00
1
Step 200
Ar -9.838553e-11 0.000000e+00 0.000000e+00
1
Step 210
Ar -9.949974e-11 0.000000e+00 0.000000e+00
1
Step 220
Ar -1.006383e-10 0.000000e+00 0.000000e+00
1
Step 230
Ar -1.017449e-10 0.000000e+00 0.000000e+00
1
Step 240
Ar -1.027630e-10 0.000000e+00 0.000000e+00
1
Step 250
Ar -1.036389e-10 0.000000e+00 0.000000e+00
1
Step 260
Ar -1.043252e-10 0.000000e+00 0.000000e+00
1
Step 270
Ar -1.047841e-10 0.000000e+00 0.000000e+00
1
Step 280
Ar -1.049898e-10 0.000000e+00 0.000000e+00
1
Step 290
Ar -1.049305e-10 0.000000e+00 0.000000e+00
1
Step 300
Ar -1.046097e-10 0.000000e+00 0.000000e+00
1
Step 310
Ar -1.040455e-10 0.000000e+00 0.000000e+00
1
Step 320
Ar -1.032694e-10 0.000000e+00 0.000000e+00
1
Step 330
Ar -1.023238e-10 0.000000e+00 0.000000e+00
1
Step 340
Ar -1.012594e-10 0.000000e+00 0.000000e+00
1
Step 350
Ar -1.001316e-10 0.000000e+00 0.000000e+00
1
Step 360
Ar -9.899701e-11 0.000000e+00 0.000000e+00
1
Step 370
Ar -9.791108e-11 0.000000e+00 0.000000e+00
1
Step 380
Ar -9.692497e-11 0.000000e+00 0.000000e+00
1
Step 390
Ar -9.608367e-11 0.000000e+00 0.000000e+00
1
Step 400
Ar -9.542451e-11 0.000000e+00 0.000000e+00
1
Step 410
Ar -9.497602e-11 0.000000e+00 0.000000e+00
1
Step 420
Ar -9.475729e-11 0.000000e+00 0.000000e+00
1
Step 430
Ar -9.477752e-11 0.000000e+00 0.000000e+00
1
Step 440
Ar -9.503584e-11 0.000000e+00 0.000000e+00
1
Step 450
Ar -9.552139e-11 0.000000e+00 0.000000e+00
1
Step 460
Ar -9.621346e-11 0.000000e+00 0.000000e+00
1
Step 470
Ar -9.708198e-11 0.000000e+00 0.000000e+00
1
Step 480
Ar -9.808824e-11 0.000000e+00 0.000000e+00
1
Step 490
Ar -9.918607e-11 0.000000e+00 0.000000e+00
1
Step 500
Ar -1.003234e-10 0.000000e+00 0.000000e+00
1
Step 510
Ar -1.014446e-10 0.000000e+00 0.000000e+00
1
Step 520
Ar -1.024928e-10 0.000000e+00 0.000000e+00
1
Step 530
Ar -1.034132e-10 0.000000e+00 0.000000e+00
1
Step 540
Ar -1.041563e-10 0.000000e+00 0.000000e+00
1
Step 550
Ar -1.046814e-10 0.000000e+00 0.000000e+00
1
Step 560
Ar -1.049591e-10 0.000000e+00 0.000000e+00
1
Step 570
Ar -1.049735e-10 0.000000e+00 0.000000e+00
1
Step 580
Ar -1.047241e-10 0.000000e+00 0.000000e+00
1
Step 590
Ar -1.042247e-10 0.000000e+00 0.000000e+00
1
Step 600
Ar -1.035035e-10 0.000000e+00 0.000000e+00
1
Step 610
Ar -1.026001e-10 0.000000e+00 0.000000e+00
1
Step 620
Ar -1.015633e-10 0.000000e+00 0.000000e+00
1
Step 630
Ar -1.004473e-10 0.000000e+00 0.000000e+00
1
Step 640
Ar -9.930895e-11 0.000000e+00 0.000000e+00
1
Step 650
Ar -9.820421e-11 0.000000e+00 0.000000e+00
1
Step 660
Ar -9.718562e-11 0.000000e+00 0.000000e+00
1
Step 670
Ar -9.630008e-11 0.000000e+00 0.000000e+00
1
Step 680
Ar -9.558718e-11 0.000000e+00 0.000000e+00
1
Step 690
Ar -9.507797e-11 0.000000e+00 0.000000e+00
1
Step 700
Ar -9.479420e-11 0.000000e+00 0.000000e+00
1
Step 710
Ar -9.474783e-11 0.000000e+00 0.000000e+00
1
Step 720
Ar -9.494082e-11 0.000000e+00 0.000000e+00
1
Step 730
Ar -9.536504e-11 0.000000e+00 0.000000e+00
1
Step 740
Ar -9.600248e-11 0.000000e+00 0.000000e+00
1
Step 750
Ar -9.682561e-11 0.000000e+00 0.000000e+00
1
Step 760
Ar -9.779802e-11 0.000000e+00 0.000000e+00
1
Step 770
Ar -9.887546e-11 0.000000e+00 0.000000e+00
1
Step 780
Ar -1.000073e-10 0.000000e+00 0.000000e+00
1
Step 790
Ar -1.011387e-10 0.000000e+00 0.000000e+00
1
Step 800
Ar -1.022127e-10 0.000000e+00 0.000000e+00
1
Step 810
Ar -1.031738e-10 0.000000e+00 0.000000e+00
1
Step 820
Ar -1.039706e-10 0.000000e+00 0.000000e+00
1
Step 830
Ar -1.045596e-10 0.000000e+00 0.000000e+00
1
Step 840
Ar -1.049081e-10 0.000000e+00 0.000000e+00
1
Step 850
Ar -1.049962e-10 0.000000e+00 0.000000e+00
1
Step 860
Ar -1.048191e-10 0.000000e+00 0.000000e+00
1
Step 870
Ar -1.043868e-10 0.000000e+00 0.000000e+00
1
Step 880
Ar -1.037236e-10 0.000000e+00 0.000000e+00
1
Step 890
Ar -1.028661e-10 0.000000e+00 0.000000e+00
1
Step 900
Ar -1.018610e-10 0.000000e+00 0.000000e+00
1
Step 910
Ar -1.007613e-10 0.000000e+00 0.000000e+00
1
Step 920
Ar -9.962350e-11 0.000000e+00 0.000000e+00
1
Step 930
Ar -9.850398e-11 0.000000e+00 0.000000e+00
1
Step 940
Ar -9.745654e-11 0.000000e+00 0.000000e+00
1
Step 950
Ar -9.652981e-11 0.000000e+00 0.000000e+00
1
Step 960
Ar -9.576556e-11 0.000000e+00 0.000000e+00
1
Step 970
Ar -9.519730e-11 0.000000e+00 0.000000e+00
1
Step 980
Ar -9.484941e-11 0.000000e+00 0.000000e+00
1
Step 990
Ar -9.473661e-11 0.000000e+00 0.000000e+00
1
Step 1000
Ar -9.486362e-11 0.000000e+00 0.000000e+00
1
Step 1010
Ar -9.522513e-11 0.000000e+00 0.000000e+00
1
Step 1020
Ar -9.580583e-11 0.000000e+00 0.000000e+00
1
Step 1030
Ar -9.658076e-11 0.000000e+00 0.000000e+00
1
Step 1040
Ar -9.751591e-11 0.000000e+00 0.000000e+00
1
Step 1050
Ar -9.856907e-11 0.000000e+00 0.000000e+00
1
Step 1060
Ar -9.969122e-11 0.000000e+00 0.000000e+00
1
Step 1070
Ar -1.008284e-10 0.000000e+00 0.000000e+00
1
Step 1080
Ar -1.019240e-10 0.000000e+00 0.000000e+00
1
Step 1090
Ar -1.029218e-10 0.000000e+00 0.000000e+00
1
Step 1100
Ar -1.037689e-10 0.000000e+00 0.000000e+00
1
Step 1110
Ar -1.044193e-10 0.000000e+00 0.000000e+00
1
Step 1120
Ar -1.048370e-10 0.000000e+00 0.000000e+00
1
Step 1130
Ar -1.049984e-10 0.000000e+00 0.000000e+00
1
Step 1140
Ar -1.048945e-10 0.000000e+00 0.000000e+00
1
Step 1150
Ar -1.045311e-10 0.000000e+00 0.000000e+00
1
Step 1160
Ar -1.039287e-10 0.000000e+00 0.000000e+00
1
Step 1170
Ar -1.031208e-10 0.000000e+00 0.000000e+00
1
Step 1180
Ar -1.021515e-10 0.000000e+00 0.000000e+00
1
Step 1190
Ar -1.010725e-10 0.000000e+00 0.000000e+00
1
Step 1200
Ar -9.993948e-11 0.000000e+00 0.000000e+00
1
Step 1210
Ar -9.880933e-11 0.000000e+00 0.000000e+00
1
Step 1220
Ar -9.773677e-11 0.000000e+00 0.000000e+00
1
Step 1230
Ar -9.677208e-11 0.000000e+00 0.000000e+00
1
Step 1240
Ar -9.595906e-11 0.000000e+00 0.000000e+00
1
Step 1250
Ar -9.533362e-11 0.000000e+00 0.000000e+00
1
Step 1260
Ar -9.492274e-11 0.000000e+00 0.000000e+00
1
Step 1270
Ar -9.474387e-11 0.000000e+00 0.000000e+00
1
Step 1280
Ar -9.480451e-11 0.000000e+00 0.000000e+00
1
Step 1290
Ar -9.510212e-11 0.000000e+00 0.000000e+00
1
Step 1300
Ar -9.562415e-11 0.000000e+00 0.000000e+00
1
Step 1310
Ar -9.634828e-11 0.000000e+00 0.000000e+00
1
Step 1320
Ar -9.724291e-11 0.000000e+00 0.000000e+00
1
Step 1330
Ar -9.826800e-11 0.000000e+00 0.000000e+00
1
Step 1340
Ar -9.937626e-11 0.000000e+00 0.000000e+00
1
Step 1350
Ar -1.005149e-10 0.000000e+00 0.000000e+00
1
Step 1360
Ar -1.016277e-10 0.000000e+00 0.000000e+00
1
Step 1370
Ar -1.026581e-10 0.000000e+00 0.000000e+00
1
Step 1380
Ar -1.035519e-10 0.000000e+00 0.000000e+00
1
Step 1390
Ar -1.042610e-10 0.000000e+00 0.000000e+00
1
Step 1400
Ar -1.047461e-10 0.000000e+00 0.000000e+00
1
Step 1410
Ar -1.049801e-10 0.000000e+00 0.000000e+00
1
Step 1420
Ar -1.049498e-10 0.000000e+00 0.000000e+00
1
Step 1430
Ar -1.046569e-10 0.000000e+00 0.000000e+00
1
Step 1440
Ar -1.041179e-10 0.000000e+00 0.000000e+00
1
Step 1450
Ar -1.033629e-10 0.000000e+00 0.000000e+00
1
Step 1460
Ar -1.024335e-10 0.000000e+00 0.000000e+00
1
Step 1470
Ar -1.013794e-10 0.000000e+00 0.000000e+00
1
Step 1480
Ar -1.002557e-10 0.000000e+00 0.000000e+00
1
Step 1490
Ar -9.911913e-11 0.000000e+00 0.000000e+00
1
Step 1500
Ar -9.802534e-11 0.000000e+00 0.000000e+00
1
Step 1510
Ar -9.702605e-11 0.000000e+00 0.000000e+00
1
Step 1520
Ar -9.616702e-11 0.000000e+00 0.000000e+00
1
Step 1530
Ar -9.548648e-11 0.000000e+00 0.000000e+00
1
Step 1540
Ar -9.501397e-11 0.000000e+00 0.000000e+00
1
Step 1550
Ar -9.476960e-11 0.000000e+00 0.000000e+00
1
Step 1560
Ar -9.476366e-11 0.000000e+00 0.000000e+00
1
Step 1570
Ar -9.499642e-11 0.000000e+00 0.000000e+00
1
Step 1580
Ar -9.545806e-11 0.000000e+00 0.000000e+00
1
Step 1590
Ar -9.612894e-11 0.000000e+00 0.000000e+00
1
Step 1600
Ar -9.697998e-11 0.000000e+00 0.000000e+00
1
Step 1610
Ar -9.797336e-11 0.000000e+00 0.000000e+00
1
Step 1620
Ar -9.906366e-11 0.000000e+00 0.000000e+00
1
Step 1630
Ar -1.001994e-10 0.000000e+00 0.000000e+00
1
Step 1640
Ar -1.013251e-10 0.000000e+00 0.000000e+00
1
Step 1650
Ar -1.023839e-10 0.000000e+00 0.000000e+00
1
Step 1660
Ar -1.033207e-10 0.000000e+00 0.000000e+00
1
Step 1670
Ar -1.040854e-10 0.000000e+00 0.000000e+00
1
Step 1680
Ar -1.046358e-10 0.000000e+00 0.000000e+00
1
Step 1690
Ar -1.049414e-10 0.000000e+00 0.000000e+00
1
Step 1700
Ar -1.049849e-10 0.000000e+00 0.000000e+00
1
Step 1710
Ar -1.047637e-10 0.000000e+00 0.000000e+00
1
Step 1720
Ar -1.042905e-10 0.000000e+00 0.000000e+00
1
Step 1730
Ar -1.035916e-10 0.000000e+00 0.000000e+00
1
Step 1740
Ar -1.027059e-10 0.000000e+00 0.000000e+00
1
Step 1750
Ar -1.016810e-10 0.000000e+00 0.000000e+00
1
Step 1760
Ar -1.005709e-10 0.000000e+00 0.000000e+00
1
Step 1770
Ar -9.943224e-11 0.000000e+00 0.000000e+00
1
Step 1780
Ar -9.832120e-11 0.000000e+00 0.000000e+00
1
Step 1790
Ar -9.729084e-11 0.000000e+00 0.000000e+00
1
Step 1800
Ar -9.638876e-11 0.000000e+00 0.000000e+00
1
Step 1810
Ar -9.565539e-11 0.000000e+00 0.000000e+00
1
Step 1820
Ar -9.512278e-11 0.000000e+00 0.000000e+00
1
Step 1830
Ar -9.481371e-11 0.000000e+00 0.000000e+00
1
Step 1840
Ar -9.474122e-11 0.000000e+00 0.000000e+00
1
Step 1850
Ar -9.490836e-11 0.000000e+00 0.000000e+00
1
Step 1860
Ar -9.530811e-11 0.000000e+00 0.000000e+00
1
Step 1870
Ar -9.592351e-11 0.000000e+00 0.000000e+00
1
Step 1880
Ar -9.672803e-11 0.000000e+00 0.000000e+00
1
Step 1890
Ar -9.768621e-11 0.000000e+00 0.000000e+00
1
Step 1900
Ar -9.875457e-11 0.000000e+00 0.000000e+00
1
Step 1910
Ar -9.988313e-11 0.000000e+00 0.000000e+00
1
Step 1920
Ar -1.010173e-10 0.000000e+00 0.000000e+00
1
Step 1930
Ar -1.021003e-10 0.000000e+00 0.000000e+00
1
Step 1940
Ar -1.030763e-10 0.000000e+00 0.000000e+00
1
Step 1950
Ar -1.038932e-10 0.000000e+00 0.000000e+00
1
Step 1960
Ar -1.045067e-10 0.000000e+00 0.000000e+00
1
Step 1970
Ar -1.048825e-10 0.000000e+00 0.000000e+00
1
Step 1980
Ar -1.049995e-10 0.000000e+00 0.000000e+00
1
Step 1990
Ar -1.048511e-10 0.000000e+00 0.000000e+00
1
Step 2000
Ar -1.044456e-10 0.000000e+00 0.000000e+00
1
Step 2010
Ar -1.038059e-10 0.000000e+00 0.000000e+00
1
Step 2020
Ar -1.029675e-10 0.000000e+00 0.000000e+00
1
Step 2030
Ar -1.019760e-10 0.000000e+00 0.000000e+00
1
Step 2040
Ar -1.008839e-10 0.000000e+00 0.000000e+00
1
Step 2050
Ar -9.974749e-11 0.000000e+00 0.000000e+00
1
Step 2060
Ar -9.862330e-11 0.000000e+00 0.000000e+00
1
Step 2070
Ar -9.756553e-11 0.000000e+00 0.000000e+00
1
Step 2080
Ar -9.662351e-11 0.000000e+00 0.000000e+00
1
Step 2090
Ar -9.583978e-11 0.000000e+00 0.000000e+00
1
Step 2100
Ar -9.524883e-11 0.000000e+00 0.000000e+00
1
Step 2110
Ar -9.487606e-11 0.000000e+00 0.000000e+00
1
Step 2120
Ar -9.473725e-11 0.000000e+00 0.000000e+00
1
Step 2130
Ar -9.483824e-11 0.000000e+00 0.000000e+00
1
Step 2140
Ar -9.517478e-11 0.000000e+00 0.000000e+00
1
Step 2150
Ar -9.573266e-11 0.000000e+00 0.000000e+00
1
Step 2160
Ar -9.648794e-11 0.000000e+00 0.000000e+00
1
Step 2170
Ar -9.740756e-11 0.000000e+00 0.000000e+00
1
Step 2180
Ar -9.845014e-11 0.000000e+00 0.000000e+00
1
Step 2190
Ar -9.956732e-11 0.000000e+00 0.000000e+00
1
Step 2200
Ar -1.007056e-10 0.000000e+00 0.000000e+00
1
Step 2210
Ar -1.018085e-10 0.000000e+00 0.000000e+00
1
Step 2220
Ar -1.028195e-10 0.000000e+00 0.000000e+00
1
Step 2230
Ar -1.036854e-10 0.000000e+00 0.000000e+00
1
Step 2240
Ar -1.043592e-10 0.000000e+00 0.000000e+00
1
Step 2250
Ar -1.048036e-10 0.000000e+00 0.000000e+00
1
Step 2260
Ar -1.049937e-10 0.000000e+00 0.000000e+00
1
Step 2270
Ar -1.049186e-10 0.000000e+00 0.000000e+00
1
Step 2280
Ar -1.045827e-10 0.000000e+00 0.000000e+00
1
Step 2290
Ar -1.040049e-10 0.000000e+00 0.000000e+00
1
Step 2300
Ar -1.032174e-10 0.000000e+00 0.000000e+00
1
Step 2310
Ar -1.022633e-10 0.000000e+00 0.000000e+00
1
Step 2320
Ar -1.011936e-10 0.000000e+00 0.000000e+00
1
Step 2330
Ar -1.000637e-10 0.000000e+00 0.000000e+00
1
Step 2340
Ar -9.893053e-11 0.000000e+00 0.000000e+00
1
Step 2350
Ar -9.784916e-11 0.000000e+00 0.000000e+00
1
Step 2360
Ar -9.687047e-11 0.000000e+00 0.000000e+00
1
Step 2370
Ar -9.603904e-11 0.000000e+00 0.000000e+00
1
Step 2380
Ar -9.539170e-11 0.000000e+00 0.000000e+00
1
Step 2390
Ar -9.495645e-11 0.000000e+00 0.000000e+00
1
Step 2400
Ar -9.475177e-11 0.000000e+00 0.000000e+00
1
Step 2410
Ar -9.478628e-11 0.000000e+00 0.000000e+00
1
Step 2420
Ar -9.505852e-11 0.000000e+00 0.000000e+00
1
Step 2430
Ar -9.555703e-11 0.000000e+00 0.000000e+00
1
Step 2440
Ar -9.626053e-11 0.000000e+00 0.000000e+00
1
Step 2450
Ar -9.713840e-11 0.000000e+00 0.000000e+00
1
Step 2460
Ar -9.815147e-11 0.000000e+00 0.000000e+00
1
Step 2470
Ar -9.925315e-11 0.000000e+00 0.000000e+00
1
Step 2480
Ar -1.003911e-10 0.000000e+00 0.000000e+00
1
Step 2490
Ar -1.015096e-10 0.000000e+00 0.000000e+00
1
Step 2500
Ar -1.025516e-10 0.000000e+00 0.000000e+00
1
Step 2510
Ar -1.034628e-10 0.000000e+00 0.000000e+00
1
Step 2520
Ar -1.041940e-10 0.000000e+00 0.000000e+00
1
Step 2530
Ar -1.047051e-10 0.000000e+00 0.000000e+00
1
Step 2540
Ar -1.049674e-10 0.000000e+00 0.000000e+00
1
Step 2550
Ar -1.049660e-10 0.000000e+00 0.000000e+00
1
Step 2560
Ar -1.047011e-10 0.000000e+00 0.000000e+00
1
Step 2570
Ar -1.041877e-10 0.000000e+00 0.000000e+00
1
Step 2580
Ar -1.034544e-10 0.000000e+00 0.000000e+00
1
Step 2590
Ar -1.025417e-10 0.000000e+00 0.000000e+00
1
Step 2600
Ar -1.014986e-10 0.000000e+00 0.000000e+00
1
Step 2610
Ar -1.003797e-10 0.000000e+00 0.000000e+00
1
Step 2620
Ar -9.924176e-11 0.000000e+00 0.000000e+00
1
Step 2630
Ar -9.814072e-11 0.000000e+00 0.000000e+00
1
Step 2640
Ar -9.712880e-11 0.000000e+00 0.000000e+00
1
Step 2650
Ar -9.625250e-11 0.000000e+00 0.000000e+00
1
Step 2660
Ar -9.555093e-11 0.000000e+00 0.000000e+00
1
Step 2670
Ar -9.505462e-11 0.000000e+00 0.000000e+00
1
Step 2680
Ar -9.478473e-11 0.000000e+00 0.000000e+00
1
Step 2690
Ar -9.475265e-11 0.000000e+00 0.000000e+00
1
Step 2700
Ar -9.495971e-11 0.000000e+00 0.000000e+00
1
Step 2710
Ar -9.539722e-11 0.000000e+00 0.000000e+00
1
Step 2720
Ar -9.604657e-11 0.000000e+00 0.000000e+00
1
Step 2730
Ar -9.687968e-11 0.000000e+00 0.000000e+00
1
Step 2740
Ar -9.785964e-11 0.000000e+00 0.000000e+00
1
Step 2750
Ar -9.894179e-11 0.000000e+00 0.000000e+00
1
Step 2760
Ar -1.000752e-10 0.000000e+00 0.000000e+00
1
Step 2770
Ar -1.012048e-10 0.000000e+00 0.000000e+00
1
Step 2780
Ar -1.022736e-10 0.000000e+00 0.000000e+00
1
Step 2790
Ar -1.032263e-10 0.000000e+00 0.000000e+00
1
Step 2800
Ar -1.040118e-10 0.000000e+00 0.000000e+00
1
Step 2810
Ar -1.045874e-10 0.000000e+00 0.000000e+00
1
Step 2820
Ar -1.049207e-10 0.000000e+00 0.000000e+00
1
Step 2830
Ar -1.049931e-10 0.000000e+00 0.000000e+00
1
Step 2840
Ar -1.048004e-10 0.000000e+00 0.000000e+00
1
Step 2850
Ar -1.043535e-10 0.000000e+00 0.000000e+00
1
Step 2860
Ar -1.036776e-10 0.000000e+00 0.000000e+00
1
Step 2870
Ar -1.028100e-10 0.000000e+00 0.000000e+00
1
Step 2880
Ar -1.017977e-10 0.000000e+00 0.000000e+00
1
Step 2890
Ar -1.006942e-10 0.000000e+00 0.000000e+00
1
Step 2900
Ar -9.955585e-11 0.000000e+00 0.000000e+00
1
Step 2910
Ar -9.843916e-11 0.000000e+00 0.000000e+00
1
Step 2920
Ar -9.739759e-11 0.000000e+00 0.000000e+00
1
Step 2930
Ar -9.647944e-11 0.000000e+00 0.000000e+00
1
Step 2940
Ar -9.572599e-11 0.000000e+00 0.000000e+00
1
Step 2950
Ar -9.517025e-11 0.000000e+00 0.000000e+00
1
Step 2960
Ar -9.483603e-11 0.000000e+00 0.000000e+00
1
Step 2970
Ar -9.473746e-11 0.000000e+00 0.000000e+00
1
Step 2980
Ar -9.487867e-11 0.000000e+00 0.000000e+00
1
Step 2990
Ar -9.525374e-11 0.000000e+00 0.000000e+00
1
Step 3000
Ar -9.584678e-11 0.000000e+00 0.000000e+00
1
Step 3010
Ar -9.663229e-11 0.000000e+00 0.000000e+00
1
Step 3020
Ar -9.757571e-11 0.000000e+00 0.000000e+00
1
Step 3030
Ar -9.863440e-11 0.000000e+00 0.000000e+00
1
Step 3040
Ar -9.975899e-11 0.000000e+00 0.000000e+00
1
Step 3050
Ar -1.008953e-10 0.000000e+00 0.000000e+00
1
Step 3060
Ar -1.019866e-10 0.000000e+00 0.000000e+00
1
Step 3070
Ar -1.029769e-10 0.000000e+00 0.000000e+00
1
Step 3080
Ar -1.038135e-10 0.000000e+00 0.000000e+00
1
Step 3090
Ar -1.044509e-10 0.000000e+00 0.000000e+00
1
Step 3100
Ar -1.048539e-10 0.000000e+00 0.000000e+00
1
Step 3110
Ar -1.049997e-10 0.000000e+00 0.000000e+00
1
Step 3120
Ar -1.048800e-10 0.000000e+00 0.000000e+00
1
Step 3130
Ar -1.045016e-10 0.000000e+00 0.000000e+00
1
Step 3140
Ar -1.038860e-10 0.000000e+00 0.000000e+00
1
Step 3150
Ar -1.030671e-10 0.000000e+00 0.000000e+00
1
Step 3160
Ar -1.020898e-10 0.000000e+00 0.000000e+00
1
Step 3170
Ar -1.010060e-10 0.000000e+00 0.000000e+00
1
Step 3180
Ar -9.987162e-11 0.000000e+00 0.000000e+00
1
Step 3190
Ar -9.874340e-11 0.000000e+00 0.000000e+00
1
Step 3200
Ar -9.767591e-11 0.000000e+00 0.000000e+00
1
Step 3210
Ar -9.671908e-11 0.000000e+00 0.000000e+00
1
Step 3220
Ar -9.591630e-11 0.000000e+00 0.000000e+00
1
Step 3230
Ar -9.530296e-11 0.000000e+00 0.000000e+00
1
Step 3240
Ar -9.490549e-11 0.000000e+00 0.000000e+00
1
Step 3250
Ar -9.474075e-11 0.000000e+00 0.000000e+00
1
Step 3260
Ar -9.481566e-11 0.000000e+00 0.000000e+00
1
Step 3270
Ar -9.512707e-11 0.000000e+00 0.000000e+00
1
Step 3280
Ar -9.566184e-11 0.000000e+00 0.000000e+00
1
Step 3290
Ar -9.639708e-11 0.000000e+00 0.000000e+00
1
Step 3300
Ar -9.730067e-11 0.000000e+00 0.000000e+00
1
Step 3310
Ar -9.833209e-11 0.000000e+00 0.000000e+00
1
Step 3320
Ar -9.944368e-11 0.000000e+00 0.000000e+00
1
Step 3330
Ar -1.005823e-10 0.000000e+00 0.000000e+00
1
Step 3340
Ar -1.016919e-10 0.000000e+00 0.000000e+00
1
Step 3350
Ar -1.027156e-10 0.000000e+00 0.000000e+00
1
Step 3360
Ar -1.035997e-10 0.000000e+00 0.000000e+00
1
Step 3370
Ar -1.042964e-10 0.000000e+00 0.000000e+00
1
Step 3380
Ar -1.047672e-10 0.000000e+00 0.000000e+00
1
Step 3390
Ar -1.049858e-10 0.000000e+00 0.000000e+00
1
Step 3400
Ar -1.049397e-10 0.000000e+00 0.000000e+00
1
Step 3410
Ar -1.046315e-10 0.000000e+00 0.000000e+00
1
Step 3420
Ar -1.040787e-10 0.000000e+00 0.000000e+00
1
Step 3430
Ar -1.033121e-10 0.000000e+00 0.000000e+00
1
Step 3440
Ar -1.023738e-10 0.000000e+00 0.000000e+00
1
Step 3450
Ar -1.013140e-10 0.000000e+00 0.000000e+00
1
Step 3460
Ar -1.001879e-10 0.000000e+00 0.000000e+00
1
Step 3470
Ar -9.905234e-11 0.000000e+00 0.000000e+00
1
Step 3480
Ar -9.796277e-11 0.000000e+00 0.000000e+00
1
Step 3490
Ar -9.697061e-11 0.000000e+00 0.000000e+00
1
Step 3500
Ar -9.612122e-11 0.000000e+00 0.000000e+00
1
Step 3510
Ar -9.545232e-11 0.000000e+00 0.000000e+00
1
Step 3520
Ar -9.499290e-11 0.000000e+00 0.000000e+00
1
Step 3530
Ar -9.476252e-11 0.000000e+00 0.000000e+00
1
Step 3540
Ar -9.477088e-11 0.000000e+00 0.000000e+00
1
Step 3550
Ar -9.501762e-11 0.000000e+00 0.000000e+00
1
Step 3560
Ar -9.549235e-11 0.000000e+00 0.000000e+00
1
Step 3570
Ar -9.617486e-11 0.000000e+00 0.000000e+00
1
Step 3580
Ar -9.703550e-11 0.000000e+00 0.000000e+00
1
Step 3590
Ar -9.803599e-11 0.000000e+00 0.000000e+00
1
Step 3600
Ar -9.913048e-11 0.000000e+00 0.000000e+00
1
Step 3610
Ar -1.002672e-10 0.000000e+00 0.000000e+00
1
Step 3620
Ar -1.013905e-10 0.000000e+00 0.000000e+00
1
Step 3630
Ar -1.024436e-10 0.000000e+00 0.000000e+00
1
Step 3640
Ar -1.033715e-10 0.000000e+00 0.000000e+00
1
Step 3650
Ar -1.041245e-10 0.000000e+00 0.000000e+00
1
Step 3660
Ar -1.046611e-10 0.000000e+00 0.000000e+00
1
Step 3670
Ar -1.049515e-10 0.000000e+00 0.000000e+00
1
Step 3680
Ar -1.049791e-10 0.000000e+00 0.000000e+00
1
Step 3690
Ar -1.047424e-10 0.000000e+00 0.000000e+00
1
Step 3700
Ar -1.042549e-10 0.000000e+00 0.000000e+00
1
Step 3710
Ar -1.035438e-10 0.000000e+00 0.000000e+00
1
Step 3720
Ar -1.026483e-10 0.000000e+00 0.000000e+00
1
Step 3730
Ar -1.016168e-10 0.000000e+00 0.000000e+00
1
Step 3740
Ar -1.005034e-10 0.000000e+00 0.000000e+00
1
Step 3750
Ar -9.936484e-11 0.000000e+00 0.000000e+00
1
Step 3760
Ar -9.825716e-11 0.000000e+00 0.000000e+00
1
Step 3770
Ar -9.723316e-11 0.000000e+00 0.000000e+00
1
Step 3780
Ar -9.634006e-11 0.000000e+00 0.000000e+00
1
Step 3790
Ar -9.561783e-11 0.000000e+00 0.000000e+00
1
Step 3800
Ar -9.509797e-11 0.000000e+00 0.000000e+00
1
Step 3810
Ar -9.480270e-11 0.000000e+00 0.000000e+00
1
Step 3820
Ar -9.474448e-11 0.000000e+00 0.000000e+00
1
Step 3830
Ar -9.492575e-11 0.000000e+00 0.000000e+00
1
Step 3840
Ar -9.533889e-11 0.000000e+00 0.000000e+00
1
Step 3850
Ar -9.596638e-11 0.000000e+00 0.000000e+00
1
Step 3860
Ar -9.678112e-11 0.000000e+00 0.000000e+00
1
Step 3870
Ar -9.774714e-11 0.000000e+00 0.000000e+00
1
Step 3880
Ar -9.882054e-11 0.000000e+00 0.000000e+00
1
Step 3890
Ar -9.995099e-11 0.000000e+00 0.000000e+00
1
Step 3900
Ar -1.010837e-10 0.000000e+00 0.000000e+00
1
Step 3910
Ar -1.021619e-10 0.000000e+00 0.000000e+00
1
Step 3920
Ar -1.031298e-10 0.000000e+00 0.000000e+00
1
Step 3930
Ar -1.039358e-10 0.000000e+00 0.000000e+00
1
Step 3940
Ar -1.045360e-10 0.000000e+00 0.000000e+00
1
Step 3950
Ar -1.048969e-10 0.000000e+00 0.000000e+00
1
Step 3960
Ar -1.049981e-10 0.000000e+00 0.000000e+00
1
Step 3970
Ar -1.048340e-10 0.000000e+00 0.000000e+00
1
Step 3980
Ar -1.044138e-10 0.000000e+00 0.000000e+00
1
Step 3990
Ar -1.037612e-10 0.000000e+00 0.000000e+00
1
Step 4000
Ar -1.029124e-10 0.000000e+00 0.000000e+00
1
Step 4010
Ar -1.019133e-10 0.000000e+00 0.000000e+00
1
Step 4020
Ar -1.008170e-10 0.000000e+00 0.000000e+00
1
Step 4030
Ar -9.967973e-11 0.000000e+00 0.000000e+00
1
Step 4040
Ar -9.855801e-11 0.000000e+00 0.000000e+00
1
Step 4050
Ar -9.750581e-11 0.000000e+00 0.000000e+00
1
Step 4060
Ar -9.657208e-11 0.000000e+00 0.000000e+00
1
Step 4070
Ar -9.579895e-11 0.000000e+00 0.000000e+00
1
Step 4080
Ar -9.522035e-11 0.000000e+00 0.000000e+00
1
Step 4090
Ar -9.486115e-11 0.000000e+00 0.000000e+00
1
Step 4100
Ar -9.473655e-11 0.000000e+00 0.000000e+00
1
Step 4110
Ar -9.485176e-11 0.000000e+00 0.000000e+00
1
Step 4120
Ar -9.520196e-11 0.000000e+00 0.000000e+00
1
Step 4130
Ar -9.577234e-11 0.000000e+00 0.000000e+00
1
Step 4140
Ar -9.653842e-11 0.000000e+00 0.000000e+00
1
Step 4150
Ar -9.746658e-11 0.000000e+00 0.000000e+00
1
Step 4160
Ar -9.851501e-11 0.000000e+00 0.000000e+00
1
Step 4170
Ar -9.963499e-11 0.000000e+00 0.000000e+00
1
Step 4180
Ar -1.007727e-10 0.000000e+00 0.000000e+00
1
Step 4190
Ar -1.018717e-10 0.000000e+00 0.000000e+00
1
Step 4200
Ar -1.028756e-10 0.000000e+00 0.000000e+00
1
Step 4210
Ar -1.037313e-10 0.000000e+00 0.000000e+00
1
Step 4220
Ar -1.043924e-10 0.000000e+00 0.000000e+00
1
Step 4230
Ar -1.048222e-10 0.000000e+00 0.000000e+00
1
Step 4240
Ar -1.049967e-10 0.000000e+00 0.000000e+00
1
Step 4250
Ar -1.049058e-10 0.000000e+00 0.000000e+00
1
Step 4260
Ar -1.045549e-10 0.000000e+00 0.000000e+00
1
Step 4270
Ar -1.039635e-10 0.000000e+00 0.000000e+00
1
Step 4280
Ar -1.031648e-10 0.000000e+00 0.000000e+00
1
Step 4290
Ar -1.022024e-10 0.000000e+00 0.000000e+00
1
Step 4300
Ar -1.011275e-10 0.000000e+00 0.000000e+00
1
Step 4310
Ar -9.999583e-11 0.000000e+00 0.000000e+00
1
Step 4320
Ar -9.886423e-11 0.000000e+00 0.000000e+00
1
Step 4330
Ar -9.778760e-11 0.000000e+00 0.000000e+00
1
Step 4340
Ar -9.681649e-11 0.000000e+00 0.000000e+00
1
Step 4350
Ar -9.599507e-11 0.000000e+00 0.000000e+00
1
Step 4360
Ar -9.535965e-11 0.000000e+00 0.000000e+00
1
Step 4370
Ar -9.493769e-11 0.000000e+00 0.000000e+00
1
Step 4380
Ar -9.474710e-11 0.000000e+00 0.000000e+00
1
Step 4390
Ar -9.479589e-11 0.000000e+00 0.000000e+00
1
Step 4400
Ar -9.508201e-11 0.000000e+00 0.000000e+00
1
Step 4410
Ar -9.559340e-11 0.000000e+00 0.000000e+00
1
Step 4420
Ar -9.630822e-11 0.000000e+00 0.000000e+00
1
Step 4430
Ar -9.719530e-11 0.000000e+00 0.000000e+00
1
Step 4440
Ar -9.821501e-11 0.000000e+00 0.000000e+00
1
Step 4450
Ar -9.932036e-11 0.000000e+00 0.000000e+00
1
Step 4460
Ar -1.004588e-10 0.000000e+00 0.000000e+00
1
Step 4470
Ar -1.015742e-10 0.000000e+00 0.000000e+00
1
Step 4480
Ar -1.026100e-10 0.000000e+00 0.000000e+00
1
Step 4490
Ar -1.035118e-10 0.000000e+00 0.000000e+00
1
Step 4500
Ar -1.042309e-10 0.000000e+00 0.000000e+00
1
Step 4510
Ar -1.047279e-10 0.000000e+00 0.000000e+00
1
Step 4520
Ar -1.049747e-10 0.000000e+00 0.000000e+00
1
Step 4530
Ar -1.049576e-10 0.000000e+00 0.000000e+00
1
Step 4540
Ar -1.046773e-10 0.000000e+00 0.000000e+00
1
Step 4550
Ar -1.041499e-10 0.000000e+00 0.000000e+00
1
Step 4560
Ar -1.034047e-10 0.000000e+00 0.000000e+00
1
Step 4570
Ar -1.024828e-10 0.000000e+00 0.000000e+00
1
Step 4580
Ar -1.014336e-10 0.000000e+00 0.000000e+00
1
Step 4590
Ar -1.003119e-10 0.000000e+00 0.000000e+00
1
Step 4600
Ar -9.917470e-11 0.000000e+00 0.000000e+00
1
Step 4610
Ar -9.807755e-11 0.000000e+00 0.000000e+00
1
Step 4620
Ar -9.707246e-11 0.000000e+00 0.000000e+00
1
Step 4630
Ar -9.620554e-11 0.000000e+00 0.000000e+00
1
Step 4640
Ar -9.551542e-11 0.000000e+00 0.000000e+00
1
Step 4650
Ar -9.503207e-11 0.000000e+00 0.000000e+00
1
Step 4660
Ar -9.477611e-11 0.000000e+00 0.000000e+00
1
Step 4670
Ar -9.475831e-11 0.000000e+00 0.000000e+00
1
Step 4680
Ar -9.497943e-11 0.000000e+00 0.000000e+00
1
Step 4690
Ar -9.543015e-11 0.000000e+00 0.000000e+00
1
Step 4700
Ar -9.609131e-11 0.000000e+00 0.000000e+00
1
Step 4710
Ar -9.693426e-11 0.000000e+00 0.000000e+00
1
Step 4720
Ar -9.792163e-11 0.000000e+00 0.000000e+00
1
Step 4730
Ar -9.900830e-11 0.000000e+00 0.000000e+00
1
Step 4740
Ar -1.001431e-10 0.000000e+00 0.000000e+00
1
Step 4750
Ar -1.012706e-10 0.000000e+00 0.000000e+00
1
Step 4760
Ar -1.023340e-10 0.000000e+00 0.000000e+00
1
Step 4770
Ar -1.032781e-10 0.000000e+00 0.000000e+00
1
Step 4780
Ar -1.040523e-10 0.000000e+00 0.000000e+00
1
Step 4790
Ar -1.046142e-10 0.000000e+00 0.000000e+00
1
Step 4800
Ar -1.049324e-10 0.000000e+00 0.000000e+00
1
Step 4810
Ar -1.049890e-10 0.000000e+00 0.000000e+00
1
Step 4820
Ar -1.047807e-10 0.000000e+00 0.000000e+00
1
Step 4830
Ar -1.043194e-10 0.000000e+00 0.000000e+00
1
Step 4840
Ar -1.036309e-10 0.000000e+00 0.000000e+00
1
Step 4850
Ar -1.027533e-10 0.000000e+00 0.000000e+00
1
Step 4860
Ar -1.017341e-10 0.000000e+00 0.000000e+00
1
Step 4870
Ar -1.006269e-10 0.000000e+00 0.000000e+00
1
Step 4880
Ar -9.948828e-11 0.000000e+00 0.000000e+00
1
Step 4890
Ar -9.837460e-11 0.000000e+00 0.000000e+00
1
Step 4900
Ar -9.733908e-11 0.000000e+00 0.000000e+00
1
Step 4910
Ar -9.642965e-11 0.000000e+00 0.000000e+00
1
Step 4920
Ar -9.568713e-11 0.000000e+00 0.000000e+00
1
Step 4930
Ar -9.514399e-11 0.000000e+00 0.000000e+00
1
Step 4940
Ar -9.482349e-11 0.000000e+00 0.000000e+00
1
Step 4950
Ar -9.473916e-11 0.000000e+00 0.000000e+00
1
Step 4960
Ar -9.489455e-11 0.000000e+00 0.000000e+00
1
Step 4970
Ar -9.528312e-11 0.000000e+00 0.000000e+00
1
Step 4980
Ar -9.588842e-11 0.000000e+00 0.000000e+00
1
Step 4990
Ar -9.668437e-11 0.000000e+00 0.000000e+00
1
Step 5000
Ar -9.763591e-11 0.000000e+00 0.000000e+00
