1
Step 0
Ar 1.222288e-10 -6.438644e-11 -5.620393e-11
1
Step 1000
Ar 1.053855e-10 -1.097885e-10 -1.083971e-10
1
Step 2000
Ar 9.441107e-11 -1.011946e-10 -8.733322e-11
1
Step 3000
Ar 1.038987e-10 -8.105122e-11 -8.125622e-11
1
Step 4000
Ar 8.792847e-11 -9.720492e-11 -1.044988e-10
1
Step 5000
Ar 8.251069e-11 -1.051373e-10 -8.905154e-11
1
Step 6000
Ar 9.587966e-11 -1.183545e-10 -9.480104e-11
1
Step 7000
Ar 1.079393e-10 -9.710091e-11 -6.924116e-11
1
Step 8000
Ar 9.180308e-11 -6.027766e-11 -8.817128e-11
1
Step 9000
Ar 9.853606e-11 -9.727607e-11 -8.103323e-11
1
Step 10000
Ar 9.297174e-11 -1.158534e-10 -1.003968e-10
1
Step 11000
Ar 8.976579e-11 -1.238755e-10 -1.041790e-10
1
Step 12000
Ar 1.132566e-10 -1.078777e-10 -9.202797e-11
1
Step 13000
Ar 8.118714e-11 -7.646860e-11 -9.593263e-11
1
Step 14000
Ar 1.028361e-10 -8.213627e-11 -1.150337e-10
1
Step 15000
Ar 1.187928e-10 -6.196168e-11 -9.361062e-11
1
Step 16000
Ar 6.573788e-11 -1.014709e-10 -1.230891e-10
1
Step 17000
Ar 1.113288e-10 -1.096392e-10 -8.777070e-11
1
Step 18000
Ar 1.085208e-10 -9.562038e-11 -1.086752e-10
1
Step 19000
Ar 9.269677e-11 -1.012267e-10 -9.111993e-11
1
Step 20000
Ar 9.779412e-11 -9.380229e-11 -9.836681e-11
1
Step 21000
Ar 7.979084e-11 -9.546037e-11 -1.017309e-10
1
Step 22000
Ar 9.656342e-11 -5.027212e-11 -7.851788e-11
1
Step 23000
Ar 1.093003e-10 1.086812e-10 -6.237771e-11
1
Step 24000
Ar 1.071486e-10 1.054917e-10 -1.013745e-10
1
Step 25000
Ar 8.736108e-11 1.147668e-10 -1.051412e-10
1
Step 26000
Ar 8.511543e-11 1.096107e-10 -9.189250e-11
1
Step 27000
Ar 9.007858e-11 9.167300e-11 -1.266642e-10
1
Step 28000
Ar 1.043582e-10 9.634908e-11 -9.230457e-11
1
Step 29000
Ar 1.076018e-10 8.616735e-11 -1.162310e-10
1
Step 30000
Ar 8.745728e-11 7.575313e-11 -1.185989e-10
1
Step 31000
Ar 9.983596e-11 7.331206e-11 -1.095937e-10
1
Step 32000
Ar 8.934328e-11 6.941358e-11 -1.106537e-10
1
Step 33000
Ar 7.823663e-11 1.002999e-10 -1.114542e-10
1
Step 34000
Ar 9.566659e-11 1.176741e-10 -6.524026e-11
1
Step 35000
Ar 9.438661e-11 9.789096e-11 -1.111504e-10
1
Step 36000
Ar 8.690832e-11 9.006657e-11 -6.121106e-11
1
Step 37000
Ar 1.128569e-10 1.299851e-10 -7.351493e-11
1
Step 38000
Ar 8.605790e-11 5.547926e-11 -1.193753e-10
1
Step 39000
Ar 9.740464e-11 1.120156e-10 -1.042324e-10
1
Step 40000
Ar 9.229265e-11 9.064665e-11 -9.899310e-11
1
Step 41000
Ar 1.201350e-10 1.161240e-10 -9.451211e-11
1
Step 42000
Ar 1.009482e-10 9.529635e-11 -1.053253e-10
1
Step 43000
Ar 7.284847e-11 9.470979e-11 -9.075265e-11
1
Step 44000
Ar 1.028648e-10 1.049021e-10 -9.935466e-11
1
Step 45000
Ar 1.172977e-10 1.119586e-10 1.281762e-10
1
Step 46000
Ar 8.814385e-11 9.072044e-11 1.057326e-10
1
Step 47000
Ar 9.029426e-11 9.225498e-11 9.168362e-11
1
Step 48000
Ar 8.459807e-11 -1.090118e-10 -1.159567e-10
1
Step 49000
Ar 1.103238e-10 -1.069038e-10 -9.538986e-11
1
Step 50000
Ar 1.176901e-10 -9.469185e-11 -9.531042e-11
1
Step 51000
Ar 9.350415e-11 -7.999842e-11 7.080493e-11
1
Step 52000
Ar 9.049673e-11 -9.946771e-11 9.700721e-11
1
Step 53000
Ar 1.119581e-10 -9.039658e-11 8.899703e-11
1
Step 54000
Ar 1.015846e-10 -9.497574e-11 1.050591e-10
1
Step 55000
Ar 7.545360e-11 -9.826380e-11 8.374389e-11
1
Step 56000
Ar 1.044713e-10 -7.748667e-11 8.115616e-11
1
Step 57000
Ar 7.791792e-11 -1.133564e-10 -2.021548e-11
1
Step 58000
Ar 9.698680e-11 -1.008546e-10 -9.147256e-11
1
Step 59000
Ar 8.836734e-11 -9.848505e-11 -1.070108e-10
1
Step 60000
Ar 9.623610e-11 -9.873210e-11 -9.357371e-11
1
Step 61000
Ar 8.141626e-11 -1.082485e-10 -1.167435e-10
1
Step 62000
Ar 7.696883e-11 -1.015992e-10 -1.023600e-10
1
Step 63000
Ar 9.574656e-11 -8.882875e-11 -1.046360e-10
1
Step 64000
Ar 9.234127e-11 -1.297626e-10 -1.141647e-10
1
Step 65000
Ar 8.084285e-11 -1.244695e-10 -1.110363e-10
1
Step 66000
Ar 9.091171e-11 -1.066962e-10 -1.032453e-10
1
Step 67000
Ar 1.067220e-10 -1.001343e-10 -1.062933e-10
1
Step 68000
Ar 9.365278e-11 7.905361e-11 -6.981509e-11
1
Step 69000
Ar 1.106767e-10 7.657224e-11 -1.107572e-10
1
Step 70000
Ar 8.534635e-11 9.023267e-11 -1.198259e-10
1
Step 71000
Ar 7.728610e-11 -1.052158e-10 -1.057730e-10
1
Step 72000
Ar 6.478809e-11 -1.057650e-10 -1.046055e-10
1
Step 73000
Ar 7.340186e-11 -9.523516e-11 -1.004230e-10
1
Step 74000
Ar 8.873126e-11 -1.064993e-10 -9.559897e-11
1
Step 75000
Ar 1.229139e-10 -6.968842e-11 -5.469344e-11
1
Step 76000
Ar 1.145642e-10 -5.727595e-11 -9.913587e-11
1
Step 77000
Ar 1.018252e-10 -1.244911e-10 -1.217609e-10
1
Step 78000
Ar 9.445466e-11 -1.041830e-10 -7.987835e-11
1
Step 79000
Ar 8.544583e-11 -1.156365e-10 -1.133016e-10
1
Step 80000
Ar 6.869848e-11 -5.962450e-11 -9.756359e-11
1
Step 81000
Ar 7.478767e-11 -1.170505e-10 -1.046942e-10
1
Step 82000
Ar 1.073316e-10 -5.418100e-11 -8.110231e-11
1
Step 83000
Ar 9.384784e-11 -1.138438e-10 -1.090163e-10
1
Step 84000
Ar 6.317212e-11 -9.937365e-11 -9.704223e-11
1
Step 85000
Ar 5.927323e-11 -1.221589e-10 -1.138722e-10
1
Step 86000
Ar 8.419148e-11 7.406603e-11 1.141725e-10
1
Step 87000
Ar 1.075410e-10 1.228142e-10 1.367543e-10
1
Step 88000
Ar 1.217683e-10 1.284222e-10 1.035539e-10
1
Step 89000
Ar 9.850766e-11 1.176461e-10 1.193769e-10
1
Step 90000
Ar 9.935873e-11 9.718642e-11 7.589824e-11
1
Step 91000
Ar 1.195760e-10 1.173567e-10 1.119897e-10
1
Step 92000
Ar 1.215885e-10 1.127024e-10 1.166593e-10
1
Step 93000
Ar 1.040303e-10 1.066962e-10 1.022030e-10
1
Step 94000
Ar 1.027204e-10 1.086159e-10 8.909092e-11
1
Step 95000
Ar 1.282534e-10 1.066963e-10 1.147783e-10
1
Step 96000
Ar 1.058968e-10 9.346039e-11 -9.800886e-11
1
Step 97000
Ar 7.109156e-11 7.348485e-11 8.922711e-11
1
Step 98000
Ar 1.080269e-10 1.066689e-10 1.039987e-10
1
Step 99000
Ar 9.071026e-11 6.614861e-11 7.816427e-11
1
Step 100000
Ar 1.185146e-10 -5.705729e-11 -3.832964e-11
1
Step 101000
Ar 1.131755e-10 -2.819990e-11 -2.976552e-11
1
Step 102000
Ar 8.306425e-11 -1.313958e-10 -1.225138e-10
1
Step 103000
Ar 1.244257e-10 -5.831806e-11 -3.981087e-11
1
Step 104000
Ar 6.948630e-11 -1.005554e-10 7.279154e-11
1
Step 105000
Ar 1.021998e-10 -7.692329e-11 1.095616e-10
1
Step 106000
Ar 8.452083e-11 7.012024e-11 7.454637e-11
1
Step 107000
Ar 1.003947e-10 5.165142e-11 -4.960299e-11
1
Step 108000
Ar 7.775955e-11 9.643014e-11 5.135771e-11
1
Step 109000
Ar 8.878593e-11 8.877429e-11 9.112071e-11
1
Step 110000
Ar 9.151713e-11 1.045530e-10 5.461443e-11
1
Step 111000
Ar 1.031294e-10 7.201701e-11 7.286528e-11
1
Step 112000
Ar 7.543531e-11 9.974134e-11 8.003151e-11
1
Step 113000
Ar 1.131950e-10 1.011060e-10 8.592400e-11
1
Step 114000
Ar 1.200763e-10 -8.544881e-11 -1.115094e-10
1
Step 115000
Ar 6.241053e-11 -9.073532e-11 -1.021346e-10
1
Step 116000
Ar 8.849490e-11 -1.207310e-10 -1.208441e-10
1
Step 117000
Ar 7.197083e-11 -1.074965e-10 -9.762957e-11
1
Step 118000
Ar 1.011462e-10 -1.031810e-10 -9.558478e-11
1
Step 119000
Ar 1.060033e-10 -5.948429e-11 -8.695651e-11
1
Step 120000
Ar 1.055563e-10 -9.986608e-11 -7.158776e-11
1
Step 121000
Ar 8.638685e-11 -1.106728e-10 -1.149134e-10
1
Step 122000
Ar 1.259187e-10 -1.225259e-11 3.147799e-11
1
Step 123000
Ar 1.018757e-10 8.866782e-11 1.157231e-10
1
Step 124000
Ar 9.642509e-11 1.084828e-10 1.153385e-10
1
Step 125000
Ar 9.424931e-11 1.105079e-10 8.850434e-11
1
Step 126000
Ar 4.991294e-11 -1.159236e-10 7.005384e-11
1
Step 127000
Ar 1.247425e-10 -3.277789e-12 1.406555e-10
1
Step 128000
Ar 6.065290e-11 6.543639e-11 7.761985e-11
1
Step 129000
Ar 9.100694e-11 1.154862e-10 1.015986e-10
1
Step 130000
Ar 9.780900e-11 8.036916e-11 6.373466e-11
1
Step 131000
Ar 8.336573e-11 7.786715e-11 8.805496e-11
1
Step 132000
Ar 7.691835e-11 -1.481477e-10 8.250267e-12
1
Step 133000
Ar 1.157621e-10 -8.529260e-11 -9.425967e-11
1
Step 134000
Ar 7.683677e-11 -1.075864e-10 -1.002806e-10
1
Step 135000
Ar 1.147089e-10 7.221364e-11 -8.115925e-11
1
Step 136000
Ar 9.770595e-11 9.056285e-11 -9.564985e-11
1
Step 137000
Ar 1.179389e-10 1.333100e-10 -9.833350e-11
1
Step 138000
Ar 1.150591e-10 1.287010e-10 1.366815e-10
1
Step 139000
Ar 9.544567e-11 9.674263e-11 7.417262e-11
1
Step 140000
Ar 8.069032e-11 6.172193e-11 1.108997e-10
1
Step 141000
Ar 8.315519e-11 9.796441e-11 1.021374e-10
1
Step 142000
Ar 1.149764e-10 1.035694e-10 8.276958e-11
1
Step 143000
Ar 1.081152e-10 1.219629e-10 1.108950e-10
1
Step 144000
Ar 7.221244e-11 5.650857e-11 6.041622e-11
1
Step 145000
Ar 6.481334e-11 7.280008e-11 -1.334997e-10
1
Step 146000
Ar 8.177601e-11 8.493856e-11 1.043717e-10
1
Step 147000
Ar 1.274260e-10 1.064816e-10 1.048032e-10
1
Step 148000
Ar 9.402481e-11 7.547291e-11 9.373376e-11
1
Step 149000
Ar 1.036686e-10 5.311382e-11 8.132116e-11
1
Step 150000
Ar 8.507810e-11 -1.247636e-10 7.610355e-11
1
Step 151000
Ar 7.947271e-11 8.729128e-11 1.023295e-10
1
Step 152000
Ar 9.200814e-11 1.158419e-10 9.591039e-11
1
Step 153000
Ar 1.198202e-10 1.024959e-10 1.231801e-10
1
Step 154000
Ar 9.916816e-11 8.543900e-11 9.555379e-11
1
Step 155000
Ar 1.013289e-10 8.296323e-11 8.378774e-11
1
Step 156000
Ar 1.098662e-10 1.315179e-10 1.326284e-10
1
Step 157000
Ar 7.781886e-11 8.998315e-11 6.791962e-11
1
Step 158000
Ar 9.169738e-11 7.042567e-11 7.677972e-11
1
Step 159000
Ar 8.328201e-11 8.381533e-11 9.856418e-11
1
Step 160000
Ar 9.721527e-11 -1.057469e-10 -1.043247e-10
1
Step 161000
Ar 9.684699e-11 1.182325e-10 1.170838e-10
1
Step 162000
Ar 8.513642e-11 7.908767e-11 1.001403e-10
1
Step 163000
Ar 1.019404e-10 1.203115e-10 1.234868e-10
1
Step 164000
Ar 1.061343e-10 -1.010548e-10 8.177533e-11
1
Step 165000
Ar 1.000880e-10 -9.855480e-11 8.502101e-11
1
Step 166000
Ar 9.281168e-11 9.342641e-11 8.264306e-11
1
Step 167000
Ar 9.421644e-11 1.094711e-10 1.133026e-10
1
Step 168000
Ar 8.146521e-11 8.916312e-11 1.040240e-10
1
Step 169000
Ar 5.760289e-11 1.038485e-10 8.620048e-11
1
Step 170000
Ar 7.956444e-11 -1.197967e-10 9.890933e-11
1
Step 171000
Ar 1.050099e-10 -7.425604e-11 1.113631e-10
1
Step 172000
Ar 7.053324e-11 -1.113322e-10 8.298232e-11
1
Step 173000
Ar 8.127428e-11 8.727235e-11 8.371385e-11
1
Step 174000
Ar 1.209750e-10 1.315254e-10 1.390352e-10
1
Step 175000
Ar 6.207923e-11 7.434910e-11 1.146814e-11
1
Step 176000
Ar 1.129007e-10 1.291364e-10 1.266561e-10
1
Step 177000
Ar 1.313465e-10 -1.007155e-10 -7.165203e-11
1
Step 178000
Ar 6.903800e-11 -1.033751e-10 -1.142381e-10
1
Step 179000
Ar 9.435647e-11 -1.154853e-10 -1.055325e-10
1
Step 180000
Ar 1.260609e-10 -4.929344e-11 -2.336595e-11
1
Step 181000
Ar 1.106927e-10 1.116573e-10 1.104850e-10
1
Step 182000
Ar 1.164918e-10 9.985211e-11 1.202028e-10
1
Step 183000
Ar 1.025408e-10 -8.873065e-11 1.120497e-10
1
Step 184000
Ar 6.758195e-11 -9.117970e-11 -9.850113e-11
1
Step 185000
Ar 9.889946e-11 -8.446938e-11 -1.081220e-10
1
Step 186000
Ar 1.096382e-10 -8.984411e-11 -9.636360e-11
1
Step 187000
Ar 9.076912e-11 8.858349e-11 1.073816e-10
1
Step 188000
Ar 8.820777e-11 8.033332e-11 9.569884e-11
1
Step 189000
Ar 8.613491e-11 7.346229e-11 1.053758e-10
1
Step 190000
Ar 7.753518e-11 1.008555e-10 1.024217e-10
1
Step 191000
Ar 1.175378e-10 1.194960e-10 1.295696e-10
1
Step 192000
Ar 1.081094e-10 1.154548e-10 9.830066e-11
1
Step 193000
Ar 1.199028e-10 1.342931e-10 1.297371e-10
1
Step 194000
Ar 1.199806e-10 8.763712e-11 7.785863e-11
1
Step 195000
Ar 1.031529e-10 1.179979e-10 9.368890e-11
1
Step 196000
Ar 7.540443e-11 -9.216893e-11 -1.065991e-10
1
Step 197000
Ar 8.298995e-11 -1.016320e-10 -9.888743e-11
1
Step 198000
Ar 9.393608e-11 -1.074621e-10 -1.039889e-10
1
Step 199000
Ar 9.880407e-11 -1.097017e-10 -9.431818e-11
1
Step 200000
Ar 6.133448e-11 -1.261190e-10 -1.051459e-10
1
Step 201000
Ar 9.716580e-11 -9.195358e-11 -1.174858e-10
1
Step 202000
Ar 1.064395e-10 -8.256718e-11 -8.145873e-11
1
Step 203000
Ar 1.083410e-10 -8.948570e-11 -1.095846e-10
1
Step 204000
Ar 1.299578e-10 1.354024e-10 1.244449e-10
1
Step 205000
Ar 1.169158e-10 1.184479e-10 1.330457e-10
1
Step 206000
Ar 1.188651e-10 1.061287e-10 9.342577e-11
1
Step 207000
Ar 9.334266e-11 1.060731e-10 9.991981e-11
1
Step 208000
Ar 4.382091e-11 6.435686e-11 8.931654e-11
1
Step 209000
Ar 1.052202e-10 1.044464e-10 4.468231e-12
1
Step 210000
Ar 9.767061e-11 6.421375e-11 -1.295172e-10
1
Step 211000
Ar 5.999643e-11 7.313971e-11 -6.862883e-11
1
Step 212000
Ar 4.756668e-11 1.035066e-10 -1.077914e-10
1
Step 213000
Ar 8.748220e-11 9.421159e-11 -1.007367e-10
1
Step 214000
Ar 1.210248e-10 1.205720e-10 -9.928560e-11
1
Step 215000
Ar 1.000785e-10 1.061936e-10 -1.070822e-10
1
Step 216000
Ar 1.066548e-10 9.374613e-11 -4.211754e-11
1
Step 217000
Ar 6.045853e-11 6.705228e-11 -1.126894e-10
1
Step 218000
Ar 1.076937e-10 1.104007e-10 -1.002398e-10
1
Step 219000
Ar 7.758939e-11 7.903992e-11 9.787850e-11
1
Step 220000
Ar 1.280038e-10 -3.882305e-11 1.339595e-10
1
Step 221000
Ar 1.221919e-10 1.330199e-10 1.205809e-10
1
Step 222000
Ar 9.125103e-11 -6.034316e-11 -7.332641e-11
1
Step 223000
Ar 8.553568e-11 -1.054417e-10 -9.125781e-11
1
Step 224000
Ar 8.226009e-11 -9.990138e-11 -1.045436e-10
1
Step 225000
Ar 1.224928e-10 -7.207664e-11 9.553189e-11
1
Step 226000
Ar 1.047338e-10 -8.317354e-11 9.585841e-11
1
Step 227000
Ar 9.527243e-11 -1.220365e-10 6.031238e-11
1
Step 228000
Ar 9.018493e-11 -1.219476e-10 -1.017787e-10
1
Step 229000
Ar 8.647623e-11 -8.805074e-11 -9.516375e-11
1
Step 230000
Ar 6.244513e-11 7.373602e-11 7.406953e-11
1
Step 231000
Ar 1.242728e-10 1.255133e-10 1.005045e-10
1
Step 232000
Ar 4.915446e-11 5.335599e-11 4.751703e-11
1
Step 233000
Ar 9.556622e-11 6.419980e-11 -2.802425e-11
1
Step 234000
Ar 1.078516e-10 8.282329e-11 -1.150172e-10
1
Step 235000
Ar 1.059322e-10 7.205321e-11 -9.640452e-11
1
Step 236000
Ar 1.031607e-10 1.012547e-10 1.014354e-10
1
Step 237000
Ar 1.236308e-10 -9.585996e-11 1.398826e-10
1
Step 238000
Ar 1.000535e-10 -8.628915e-11 8.367744e-11
1
Step 239000
Ar 8.805092e-11 -9.608885e-11 8.927473e-11
1
Step 240000
Ar 1.109288e-10 -8.242732e-11 1.158360e-10
1
Step 241000
Ar 1.169741e-10 3.164648e-11 1.097736e-10
1
Step 242000
Ar 1.253225e-10 1.052289e-10 1.044360e-10
1
Step 243000
Ar 1.025663e-10 1.194789e-10 1.056188e-10
1
Step 244000
Ar 1.098597e-10 1.272197e-10 1.364481e-10
1
Step 245000
Ar 1.049558e-10 1.032657e-10 9.398636e-11
1
Step 246000
Ar 7.471039e-11 8.266916e-11 7.694630e-11
1
Step 247000
Ar 8.107231e-11 7.765710e-11 7.048162e-11
1
Step 248000
Ar 8.551195e-11 7.693308e-11 7.586023e-11
1
Step 249000
Ar 1.039849e-10 9.875417e-11 1.256502e-10
1
Step 250000
Ar 7.943909e-11 -9.739340e-11 -4.718948e-11
1
Step 251000
Ar 1.301255e-10 -5.733342e-11 -4.808605e-11
1
Step 252000
Ar 1.252117e-10 -7.015646e-11 1.103935e-10
1
Step 253000
Ar 7.564314e-11 8.889143e-11 2.941920e-11
1
Step 254000
Ar 7.844902e-11 8.840820e-11 1.171994e-10
1
Step 255000
Ar 1.130432e-10 -1.033291e-10 -8.462847e-11
1
Step 256000
Ar 7.649357e-11 9.220291e-11 9.400885e-11
1
Step 257000
Ar 1.148597e-10 1.098393e-10 9.511428e-11
1
Step 258000
Ar 1.093603e-10 1.181955e-10 1.203052e-10
1
Step 259000
Ar 7.380110e-11 5.318605e-11 6.295417e-11
1
Step 260000
Ar 1.308249e-10 -4.570542e-11 1.167811e-10
1
Step 261000
Ar 9.970750e-11 6.958578e-11 9.046507e-11
1
Step 262000
Ar 1.123609e-10 1.270904e-10 1.346463e-10
1
Step 263000
Ar 8.999477e-11 3.967381e-11 -1.063208e-10
1
Step 264000
Ar 6.245111e-11 8.555748e-11 -9.296617e-11
1
Step 265000
Ar 1.116699e-10 9.455160e-11 6.753597e-11
1
Step 266000
Ar 9.808183e-11 7.502027e-11 1.075106e-10
1
Step 267000
Ar 1.343350e-10 1.253417e-10 1.193801e-10
1
Step 268000
Ar 9.204611e-11 9.238242e-11 7.753734e-11
1
Step 269000
Ar 1.075836e-10 1.194810e-10 9.777157e-11
1
Step 270000
Ar 8.147212e-11 5.334009e-11 4.158511e-11
1
Step 271000
Ar 6.805765e-11 -1.408834e-10 -1.301549e-10
1
Step 272000
Ar 9.232595e-11 -9.169027e-11 -1.230969e-10
1
Step 273000
Ar 8.398925e-11 -1.009535e-11 -4.818780e-11
1
Step 274000
Ar 1.095995e-10 1.395574e-10 1.238579e-10
1
Step 275000
Ar 6.947609e-11 8.315177e-11 9.392993e-11
1
Step 276000
Ar 1.032814e-10 7.816438e-11 -1.020501e-10
1
Step 277000
Ar 8.570734e-11 8.187573e-11 -4.688081e-11
1
Step 278000
Ar 9.972537e-11 9.418269e-11 -1.509501e-11
1
Step 279000
Ar 8.882001e-11 7.064660e-11 -1.388508e-10
1
Step 280000
Ar 8.215166e-11 8.781111e-11 -1.021381e-10
1
Step 281000
Ar 9.664807e-11 7.837372e-11 -1.348356e-10
1
Step 282000
Ar 9.994644e-11 8.354316e-11 7.728694e-11
1
Step 283000
Ar 9.936162e-11 9.788137e-11 6.004985e-11
1
Step 284000
Ar 6.768672e-11 5.413243e-11 7.615436e-11
1
Step 285000
Ar 6.170421e-11 9.709352e-11 1.030013e-10
1
Step 286000
Ar 1.269586e-10 9.997323e-11 9.242085e-11
1
Step 287000
Ar 6.534953e-11 -1.269169e-10 6.797191e-11
1
Step 288000
Ar 9.969085e-11 -8.990191e-11 1.049581e-10
1
Step 289000
Ar 1.011512e-10 -9.428412e-11 -6.911380e-11
1
Step 290000
Ar 7.555864e-11 -1.073045e-10 -1.271610e-10
1
Step 291000
Ar 9.415508e-11 9.302541e-11 8.407446e-11
1
Step 292000
Ar 6.195331e-11 7.965773e-11 9.129119e-11
1
Step 293000
Ar 1.084040e-10 9.867050e-11 1.162611e-10
1
Step 294000
Ar 8.224261e-11 8.752065e-11 7.340201e-11
1
Step 295000
Ar 1.107799e-10 1.268868e-10 -6.965751e-11
1
Step 296000
Ar 6.775545e-11 5.023891e-11 -1.310697e-10
1
Step 297000
Ar 8.954352e-11 -9.384860e-11 -1.111755e-10
1
Step 298000
Ar 1.095721e-10 -3.476749e-11 -6.937393e-11
1
Step 299000
Ar 4.237921e-11 7.748336e-11 -1.039639e-10
1
Step 300000
Ar 1.125724e-10 7.810431e-11 -6.480036e-11
1
Step 301000
Ar 9.820888e-11 8.888789e-11 8.313253e-11
1
Step 302000
Ar 1.075549e-10 1.022539e-10 1.030695e-10
1
Step 303000
Ar 8.983082e-11 9.124966e-11 9.596814e-11
1
Step 304000
Ar 6.556212e-11 8.718182e-11 8.920892e-11
1
Step 305000
Ar 4.858892e-11 -1.259169e-10 -1.302137e-10
1
Step 306000
Ar -1.000480e-10 -1.095271e-10 -8.118392e-11
1
Step 307000
Ar -1.035658e-10 -1.022308e-10 -6.765074e-11
1
Step 308000
Ar -8.879763e-11 -1.151544e-10 -7.519549e-11
1
Step 309000
Ar -1.127650e-10 -1.020115e-10 -7.471490e-11
1
Step 310000
Ar -7.956542e-11 -8.161481e-11 -8.534006e-11
1
Step 311000
Ar -8.827224e-11 -1.123041e-10 -1.034825e-10
1
Step 312000
Ar -9.674749e-11 -1.013766e-10 -1.170447e-10
1
Step 313000
Ar -9.973680e-11 -1.051124e-10 -1.030598e-10
1
Step 314000
Ar -1.263536e-10 -1.031895e-10 -1.225653e-10
1
Step 315000
Ar -1.048067e-10 -1.030979e-10 -9.622018e-11
1
Step 316000
Ar -9.960521e-11 -8.315670e-11 -9.938646e-11
1
Step 317000
Ar -9.452809e-11 -1.043603e-10 -1.126424e-10
1
Step 318000
Ar -1.089138e-10 -9.885168e-11 -1.124769e-10
1
Step 319000
Ar -1.016563e-10 -9.367284e-11 -1.010852e-10
1
Step 320000
Ar -1.239878e-10 -1.067396e-10 -1.024553e-10
1
Step 321000
Ar -1.137251e-10 -1.225539e-10 -1.146619e-10
1
Step 322000
Ar -6.411960e-11 -6.577260e-11 -1.837779e-12
1
Step 323000
Ar -8.573637e-11 -7.219026e-11 1.150855e-10
1
Step 324000
Ar -8.732274e-11 1.310145e-10 1.115852e-10
1
Step 325000
Ar -1.065229e-10 5.267812e-11 4.692938e-11
1
Step 326000
Ar -7.411837e-11 9.735266e-11 9.835245e-11
1
Step 327000
Ar -9.529302e-11 1.191772e-10 1.046249e-10
1
Step 328000
Ar -9.802022e-11 9.460239e-11 1.268641e-10
1
Step 329000
Ar -9.426728e-11 1.151796e-10 -7.817952e-11
1
Step 330000
Ar -1.050424e-10 7.929141e-11 -1.079061e-10
1
Step 331000
Ar -1.175909e-10 1.089513e-10 -8.663252e-11
1
Step 332000
Ar -9.100674e-11 1.182995e-10 -6.434676e-11
1
Step 333000
Ar -9.688424e-11 1.158886e-10 -8.683841e-11
1
Step 334000
Ar -9.273631e-11 -1.102431e-10 -1.092717e-10
1
Step 335000
Ar -1.033556e-10 -1.106877e-10 7.610810e-11
1
Step 336000
Ar -6.997863e-11 9.664851e-11 1.006641e-10
1
Step 337000
Ar -1.186908e-10 4.870640e-11 3.631866e-11
1
Step 338000
Ar -1.126037e-10 -9.837416e-11 -8.883853e-11
1
Step 339000
Ar -9.799367e-11 -1.032642e-10 -7.901219e-11
1
Step 340000
Ar -7.640018e-11 -8.304307e-11 -4.210620e-11
1
Step 341000
Ar -1.248472e-10 -1.009928e-10 -1.107753e-10
1
Step 342000
Ar -8.076094e-11 -1.080332e-10 -9.363999e-11
1
Step 343000
Ar -1.275522e-10 -1.055761e-10 6.104458e-11
1
Step 344000
Ar -1.153035e-10 -9.611056e-11 7.323609e-11
1
Step 345000
Ar -1.062694e-10 -9.144937e-11 8.856882e-11
1
Step 346000
Ar -5.474574e-11 8.380795e-11 -8.262052e-11
1
Step 347000
Ar -8.767609e-11 1.039421e-10 -8.162009e-11
1
Step 348000
Ar -9.051842e-11 9.991989e-11 -8.693958e-11
1
Step 349000
Ar -1.126317e-10 6.431711e-11 -1.295310e-10
1
Step 350000
Ar -9.456735e-11 7.722494e-11 -1.110759e-10
1
Step 351000
Ar -9.792361e-11 1.060332e-10 -1.141732e-10
1
Step 352000
Ar -7.766581e-11 9.848179e-11 -8.179392e-11
1
Step 353000
Ar -1.149377e-10 3.398052e-11 -1.194253e-10
1
Step 354000
Ar -1.110529e-10 6.890583e-11 -1.140106e-10
1
Step 355000
Ar -9.637759e-11 9.989628e-11 -7.158322e-11
1
Step 356000
Ar 7.437595e-11 9.822696e-11 -9.860719e-11
1
Step 357000
Ar 1.125117e-10 1.238965e-10 7.592694e-11
1
Step 358000
Ar 9.724309e-11 -1.044320e-10 9.481013e-11
1
Step 359000
Ar 6.721794e-11 -9.205797e-11 -5.446971e-13
1
Step 360000
Ar 6.210257e-11 8.719920e-11 9.663554e-11
1
Step 361000
Ar 9.368536e-11 1.139986e-10 7.089511e-11
1
Step 362000
Ar 7.208475e-11 7.807198e-11 8.009096e-11
1
Step 363000
Ar 9.519406e-11 -1.071205e-10 8.686908e-11
1
Step 364000
Ar 1.189325e-10 -8.133557e-11 8.956374e-11
1
Step 365000
Ar 1.051343e-10 1.257234e-10 1.138914e-10
1
Step 366000
Ar 7.043517e-11 9.180394e-11 9.583746e-11
1
Step 367000
Ar 6.224053e-11 5.482946e-11 8.291503e-11
1
Step 368000
Ar 9.130944e-11 8.492357e-11 4.581772e-11
1
Step 369000
Ar 1.139474e-10 1.005001e-10 7.710075e-11
1
Step 370000
Ar 5.928967e-11 9.375700e-11 4.970703e-11
1
Step 371000
Ar 1.188631e-10 1.186778e-10 1.155156e-10
1
Step 372000
Ar 7.714377e-11 -9.370369e-11 -1.348452e-10
1
Step 373000
Ar 1.026405e-10 1.246305e-10 7.913784e-11
1
Step 374000
Ar 1.149761e-10 1.200033e-10 1.133085e-10
1
Step 375000
Ar 1.001400e-10 -1.227659e-10 9.972333e-11
1
Step 376000
Ar 7.222731e-11 -1.133763e-10 2.775078e-11
1
Step 377000
Ar 5.590837e-11 -1.118207e-10 -1.034244e-10
1
Step 378000
Ar 7.409078e-11 4.145655e-11 4.827130e-11
1
Step 379000
Ar 1.025087e-10 1.142992e-10 1.109858e-10
1
Step 380000
Ar 7.596280e-11 3.903120e-11 1.099867e-10
1
Step 381000
Ar 1.297738e-10 1.350710e-10 1.340881e-10
1
Step 382000
Ar 9.779312e-11 8.768313e-11 8.253577e-11
1
Step 383000
Ar 9.047534e-11 8.020387e-11 8.504682e-11
1
Step 384000
Ar 7.733470e-11 9.611188e-11 1.005419e-10
1
Step 385000
Ar 7.051163e-11 9.555239e-11 -1.043227e-10
1
Step 386000
Ar 9.627255e-11 1.366661e-10 -3.618376e-11
1
Step 387000
Ar -1.087919e-10 7.525197e-11 -8.646029e-11
1
Step 388000
Ar -1.176795e-10 8.325718e-11 8.591041e-11
1
Step 389000
Ar -1.098564e-10 1.007719e-10 4.848546e-11
1
Step 390000
Ar -7.048223e-11 -7.682705e-11 1.152805e-10
1
Step 391000
Ar -1.024884e-10 -1.093225e-10 2.650212e-11
1
Step 392000
Ar -9.872471e-11 -8.071232e-11 8.293875e-11
1
Step 393000
Ar -1.059758e-10 -1.060759e-10 -8.606396e-11
1
Step 394000
Ar -8.355001e-11 -7.583980e-11 -8.218188e-11
1
Step 395000
Ar -1.102169e-10 -1.070807e-10 7.778627e-11
1
Step 396000
Ar -7.154082e-11 -7.458274e-11 1.044757e-10
1
Step 397000
Ar -1.189965e-10 6.700481e-11 7.916192e-11
1
Step 398000
Ar -1.069718e-10 1.112656e-10 9.621036e-11
1
Step 399000
Ar -1.093524e-10 6.220145e-11 8.803219e-11
1
Step 400000
Ar -1.024077e-10 1.057110e-10 9.171031e-11
1
Step 401000
Ar -9.348633e-11 9.836114e-11 9.578109e-11
1
Step 402000
Ar -1.110817e-10 3.466880e-11 1.111664e-10
1
Step 403000
Ar -8.343446e-11 1.234991e-10 1.174705e-10
1
Step 404000
Ar -9.877986e-11 1.021109e-10 1.156726e-10
1
Step 405000
Ar -9.153040e-11 1.144342e-10 8.240492e-11
1
Step 406000
Ar -7.962133e-11 1.040231e-10 1.271936e-10
1
Step 407000
Ar -9.234490e-11 9.259776e-11 1.069109e-10
1
Step 408000
Ar -5.487391e-11 1.785492e-11 1.185111e-10
1
Step 409000
Ar -1.092408e-10 1.105010e-10 1.107287e-10
1
Step 410000
Ar -1.120647e-10 7.410624e-11 -3.319847e-12
1
Step 411000
Ar -1.052029e-10 -1.011790e-10 -1.130183e-10
1
Step 412000
Ar -7.661364e-11 -6.108703e-11 -9.593350e-11
1
Step 413000
Ar -1.125405e-10 -1.209336e-11 -1.177557e-10
1
Step 414000
Ar -7.818196e-11 -6.999685e-11 -6.969081e-11
1
Step 415000
Ar -9.162263e-11 -1.023041e-10 -6.664911e-11
1
Step 416000
Ar -7.812272e-11 -9.299611e-11 1.148402e-10
1
Step 417000
Ar -8.107000e-11 -6.238983e-11 1.070271e-10
1
Step 418000
Ar -9.675393e-11 -1.017702e-10 -1.114757e-10
1
Step 419000
Ar -1.101551e-10 -9.865278e-11 -9.530134e-11
1
Step 420000
Ar -1.236824e-10 -8.814716e-11 -1.085279e-10
1
Step 421000
Ar -6.756733e-11 -9.779613e-11 -9.373337e-11
1
Step 422000
Ar -6.292242e-11 -7.985878e-11 -5.431946e-11
1
Step 423000
Ar -1.011272e-10 1.108673e-10 -8.806023e-11
1
Step 424000
Ar -7.856276e-11 6.146632e-11 -1.099551e-10
1
Step 425000
Ar -1.001575e-10 9.325919e-11 8.129496e-11
1
Step 426000
Ar -1.031356e-10 6.114597e-11 1.004006e-10
1
Step 427000
Ar -1.146984e-10 -1.213006e-10 -5.103011e-12
1
Step 428000
Ar -7.017158e-11 -9.001148e-11 -1.119210e-10
1
Step 429000
Ar -6.309929e-11 8.609877e-11 1.063903e-10
1
Step 430000
Ar -1.004327e-10 5.955641e-11 8.159466e-11
1
Step 431000
Ar -9.777463e-11 1.052791e-10 8.257076e-11
1
Step 432000
Ar -8.622704e-11 1.379099e-10 1.009276e-10
1
Step 433000
Ar -1.020037e-10 9.103789e-11 -9.507939e-11
1
Step 434000
Ar -1.194710e-10 -1.229761e-10 -1.060854e-10
1
Step 435000
Ar -7.421810e-11 -2.761241e-11 -8.372998e-11
1
Step 436000
Ar -7.588686e-11 -1.001720e-10 -7.281482e-11
1
Step 437000
Ar -6.858803e-11 1.389794e-10 1.220294e-10
1
Step 438000
Ar -6.048505e-11 1.075549e-10 1.151082e-10
1
Step 439000
Ar -9.180813e-11 -9.712696e-11 -1.291545e-10
1
Step 440000
Ar -9.742134e-11 6.909214e-11 8.928753e-11
1
Step 441000
Ar -1.011934e-10 1.083067e-10 1.080969e-10
1
Step 442000
Ar -9.309415e-11 9.640008e-11 8.433916e-11
1
Step 443000
Ar -1.149645e-10 -1.020159e-10 3.300551e-11
1
Step 444000
Ar -9.339372e-11 -6.808067e-11 1.048081e-10
1
Step 445000
Ar -1.051364e-10 -1.196340e-10 -1.272449e-10
1
Step 446000
Ar -1.084451e-10 -9.434594e-11 -1.038796e-10
1
Step 447000
Ar -6.179603e-11 -9.238312e-11 -2.453521e-11
1
Step 448000
Ar -1.117498e-10 -1.043016e-10 -1.223157e-10
1
Step 449000
Ar -8.168089e-11 -9.941193e-11 -9.969827e-11
1
Step 450000
Ar -1.064476e-10 -9.423509e-11 -9.221790e-11
1
Step 451000
Ar -1.049627e-10 -1.178664e-10 -1.251599e-10
1
Step 452000
Ar -9.912129e-11 -4.172517e-11 7.306135e-11
1
Step 453000
Ar -6.215508e-11 -1.036760e-10 -9.024336e-11
1
Step 454000
Ar -1.085186e-10 -7.979478e-11 -1.004975e-10
1
Step 455000
Ar -8.534851e-11 -2.822637e-11 -6.479289e-11
1
Step 456000
Ar -1.261354e-10 -1.103450e-10 -9.536447e-11
1
Step 457000
Ar -5.139915e-11 1.271455e-10 1.205867e-10
1
Step 458000
Ar -1.198190e-10 9.609504e-11 7.105784e-11
1
Step 459000
Ar -5.583131e-11 1.122097e-10 1.115090e-10
1
Step 460000
Ar -6.711195e-11 8.156006e-11 1.165343e-10
1
Step 461000
Ar -9.388134e-11 1.044522e-10 1.037324e-10
1
Step 462000
Ar -8.511678e-11 8.840743e-11 9.770741e-11
1
Step 463000
Ar -1.037209e-10 9.952125e-11 7.049596e-11
1
Step 464000
Ar -1.024138e-10 7.355175e-11 7.843758e-11
1
Step 465000
Ar -1.236964e-10 -1.197361e-10 -1.138904e-10
1
Step 466000
Ar -1.180329e-10 -1.144686e-10 -9.555846e-11
1
Step 467000
Ar -7.667588e-11 -1.006128e-10 -8.043664e-11
1
Step 468000
Ar -1.172874e-10 -8.658417e-11 -9.837676e-11
1
Step 469000
Ar -7.996843e-11 -6.750144e-11 -7.716490e-11
1
Step 470000
Ar -1.155253e-10 -1.074452e-10 -9.649227e-11
1
Step 471000
Ar -9.769573e-11 -9.590497e-11 -9.290189e-11
1
Step 472000
Ar -9.983650e-11 -1.261381e-10 -1.200445e-10
1
Step 473000
Ar -8.511597e-11 -8.789631e-11 -9.306122e-11
1
Step 474000
Ar -7.900663e-11 -9.613515e-11 -7.848422e-11
1
Step 475000
Ar -8.477662e-11 -7.626802e-11 -6.045687e-11
1
Step 476000
Ar -5.849791e-11 -7.917348e-11 -7.468642e-11
1
Step 477000
Ar -7.309906e-11 -9.004840e-11 -7.096821e-11
1
Step 478000
Ar -1.224995e-10 -1.236942e-10 -1.287258e-10
1
Step 479000
Ar -7.215310e-11 -8.445884e-11 -9.504860e-11
1
Step 480000
Ar -1.056408e-10 -1.066536e-10 -1.259152e-10
1
Step 481000
Ar -1.282655e-10 -1.202287e-10 -1.173204e-10
1
Step 482000
Ar -1.053230e-10 -8.474138e-11 -8.942637e-11
1
Step 483000
Ar -1.013351e-10 -1.073389e-10 -9.231760e-11
1
Step 484000
Ar -1.251932e-10 -1.175672e-10 -1.228554e-10
1
Step 485000
Ar -9.601657e-11 -9.192717e-11 -9.174206e-11
1
Step 486000
Ar -8.568609e-11 -1.006278e-10 -9.637931e-11
1
Step 487000
Ar -8.406836e-11 -9.057492e-11 1.229955e-11
1
Step 488000
Ar -1.156390e-10 -6.811372e-11 1.143854e-10
1
Step 489000
Ar -9.077029e-11 -7.728492e-11 -1.023981e-10
1
Step 490000
Ar -8.515121e-11 -7.717409e-11 -9.803372e-11
1
Step 491000
Ar -6.194041e-11 8.627184e-11 3.000266e-11
1
Step 492000
Ar -7.783459e-11 1.178161e-10 1.270023e-10
1
Step 493000
Ar 4.814022e-11 3.144762e-11 7.034313e-11
1
Step 494000
Ar 1.239230e-10 -5.809298e-11 -4.755517e-11
1
Step 495000
Ar 7.990849e-11 7.246800e-11 3.575036e-11
1
Step 496000
Ar 7.129058e-11 -1.136947e-10 4.725603e-11
1
Step 497000
Ar 1.235069e-10 1.696672e-10 1.032480e-10
1
Step 498000
Ar 1.130510e-10 1.329551e-10 1.095535e-10
1
Step 499000
Ar 1.201688e-10 1.139888e-10 1.266329e-10
1
Step 500000
Ar 7.945849e-11 9.446676e-11 1.191136e-10
1
Step 501000
Ar 7.976044e-11 9.208252e-11 3.828791e-11
1
Step 502000
Ar 5.053252e-11 -9.011774e-11 -2.350649e-11
1
Step 503000
Ar 1.001464e-10 -1.248183e-10 -1.029996e-10
1
Step 504000
Ar 1.332820e-10 -7.424621e-11 -8.717064e-11
1
Step 505000
Ar 7.339865e-11 8.772932e-11 -4.345541e-11
1
Step 506000
Ar 8.558127e-11 6.333171e-11 -1.105210e-10
1
Step 507000
Ar 6.636129e-11 7.538434e-11 -1.182515e-10
1
Step 508000
Ar 1.081035e-10 9.874151e-11 1.099874e-10
1
Step 509000
Ar 5.196639e-11 9.308108e-11 9.085376e-11
1
Step 510000
Ar 1.014974e-10 1.096578e-10 8.051105e-11
1
Step 511000
Ar 8.885901e-11 5.555738e-11 9.876085e-11
1
Step 512000
Ar 9.874319e-11 7.094003e-11 8.789852e-11
1
Step 513000
Ar 9.679329e-11 7.773395e-11 9.280562e-11
1
Step 514000
Ar 9.563605e-11 1.033198e-10 9.284605e-11
1
Step 515000
Ar 1.073000e-10 1.129774e-10 9.353952e-11
1
Step 516000
Ar 8.295137e-11 8.468468e-11 7.104432e-11
1
Step 517000
Ar 1.222868e-10 1.347024e-10 1.297179e-10
1
Step 518000
Ar -5.158680e-11 -6.308098e-11 -8.884353e-11
1
Step 519000
Ar -5.990702e-11 -7.892412e-11 -8.220589e-11
1
Step 520000
Ar -9.941808e-11 -1.198026e-10 -1.281057e-10
1
Step 521000
Ar -1.004217e-10 -9.523319e-11 -1.126412e-10
1
Step 522000
Ar 3.121342e-11 -9.562646e-11 -9.052621e-11
1
Step 523000
Ar 9.782527e-11 -8.970310e-11 -7.556936e-11
1
Step 524000
Ar 1.106244e-10 -8.794050e-11 -8.833258e-11
1
Step 525000